<?xml version="1.0"?>
<VTKFile type="UnstructuredGrid" version="0.1" byte_order="LittleEndian">
   <UnstructuredGrid>
      <Piece NumberOfPoints="17" NumberOfCells="0" > 
         <Points> 
            <DataArray type="Float64" Name="Position" NumberOfComponents="3" format="ascii"> 
               0  1  0  
               0.0625  1  0  
               0.125  1  0  
               0.1875  1  0  
               0.25  1  0  
               0.3125  1  0  
               0.375  1  0  
               0.4375  1  0  
               0.5  1  0  
               0.5625  1  0  
               0.625  1  0  
               0.6875  1  0  
               0.75  1  0  
               0.8125  1  0  
               0.875  1  0  
               0.9375  1  0  
               1  1  0  
            </DataArray>
         </Points> 

         <Cells>
            <DataArray type="Int32" Name="connectivity" NumberOfComponents="1" format="ascii">
               
            </DataArray> 
            <DataArray type="Int32" Name="offsets" NumberOfComponents="1" format="ascii">
               
            </DataArray>
            <DataArray type="UInt8"  Name="types" NumberOfComponents="1" format="ascii">
               
            </DataArray>
         </Cells>
         <PointData Scalars="Rank Velocity Force " Vectors="">
            <DataArray type="UInt32" Name="Rank" NumberOfComponents="1" format="ascii">
               0 0 0 0 0 0 0 0 0 0 0 0 0 0 0 0 0 
            </DataArray>
            <DataArray type="Float64" Name="Velocity" NumberOfComponents="1" format="ascii">
               -4.26963e-08 9.45126e-09 1.38773e-08 7.51194e-09 5.04678e-09 3.56657e-09 2.39561e-09 1.4284e-09 5.5401e-10 -2.81779e-10 -1.1217e-09 -2.00793e-09 -2.99267e-09 -4.15953e-09 -5.65499e-09 -7.77983e-09 -1.17482e-08 
            </DataArray>
            <DataArray type="Float64" Name="Force" NumberOfComponents="1" format="ascii">
               -0.00305993 -0.00585935 -0.00546873 -0.00507812 -0.0046875 -0.00429687 -0.00390625 -0.00351562 -0.003125 -0.00273437 -0.00234375 -0.00195312 -0.0015625 -0.00117187 -0.000781248 -0.000390626 -6.51092e-05 
            </DataArray>
         </PointData> 
      </Piece>
   </UnstructuredGrid> 
</VTKFile>
